3
Lattice="10.0 0.0 0.0 0.0 10.0 0.0 0.0 0.0 10.0" Properties="species:S:1:pos:R:3:Z:I:1:forces:R:3" energy=0.0000000000
O   -0.0000326100  -0.1164435000   0.0000000000 8   -0.00000000 -0.00000000 0.00000000 
H   -0.7616871000   0.4820279000   0.0000000000 1   0.00000002 0.00000001 -0.00000000 
H    0.7612602000   0.4824982000   0.0000000000 1   -0.00000002 0.00000001 -0.00000000 
3
Lattice="10.0 0.0 0.0 0.0 10.0 0.0 0.0 0.0 10.0" Properties="species:S:1:pos:R:3:Z:I:1:forces:R:3" energy=0.0068489332
O   -0.0009862633  -0.1173900000  -0.0021879770 8   -0.00000055 -0.00000021 -0.00000000 
H   -0.7526506000   0.4831068000   0.0218125100 1   0.00000343 -0.00000182 -0.00000009 
H    0.7673588000   0.4964417000   0.0129120900 1   0.00000524 0.00000509 0.00000012 
3
Lattice="10.0 0.0 0.0 0.0 10.0 0.0 0.0 0.0 10.0" Properties="species:S:1:pos:R:3:Z:I:1:forces:R:3" energy=0.0239154842
O   -0.0018243730  -0.1182930000  -0.0043755020 8   -0.00000098 -0.00000039 -0.00000001 
H   -0.7443393000   0.4845708000   0.0436441800 1   0.00000624 -0.00000320 -0.00000030 
H    0.7723489000   0.5093079000   0.0257978500 1   0.00000933 0.00000937 0.00000046 
3
Lattice="10.0 0.0 0.0 0.0 10.0 0.0 0.0 0.0 10.0" Properties="species:S:1:pos:R:3:Z:I:1:forces:R:3" energy=0.0439969808
O   -0.0024547370  -0.1191136000  -0.0065608570 8   -0.00000127 -0.00000056 -0.00000003 
H   -0.7373496000   0.4867122000   0.0655396200 1   0.00000808 -0.00000380 -0.00000054 
H    0.7753634000   0.5201904000   0.0385854000 1   0.00001207 0.00001263 0.00000094 
3
Lattice="10.0 0.0 0.0 0.0 10.0 0.0 0.0 0.0 10.0" Properties="species:S:1:pos:R:3:Z:I:1:forces:R:3" energy=0.0600295253
O   -0.0028163310  -0.1198165000  -0.0087409180 8   -0.00000140 -0.00000072 -0.00000005 
H   -0.7320712000   0.4896588000   0.0875491500 1   0.00000872 -0.00000342 -0.00000068 
H    0.7758238000   0.5283988000   0.0511748400 1   0.00001342 0.00001480 0.00000146 
3
Lattice="10.0 0.0 0.0 0.0 10.0 0.0 0.0 0.0 10.0" Properties="species:S:1:pos:R:3:Z:I:1:forces:R:3" energy=0.0677709694
O   -0.0028826080  -0.1203676000  -0.0109105700 8   -0.00000136 -0.00000087 -0.00000009 
H   -0.7286396000   0.4933294000   0.1097026000 1   0.00000817 -0.00000203 -0.00000061 
H    0.7734440000   0.5334744000   0.0634552100 1   0.00001343 0.00001587 0.00000196 
3
Lattice="10.0 0.0 0.0 0.0 10.0 0.0 0.0 0.0 10.0" Properties="species:S:1:pos:R:3:Z:I:1:forces:R:3" energy=0.0667968264
O   -0.0026608170  -0.1207342000  -0.0130621200 8   -0.00000118 -0.00000101 -0.00000013 
H   -0.7269363000   0.4974303000   0.1319844000 1   0.00000663 0.00000018 -0.00000025 
H    0.7682208000   0.5351916000   0.0753198900 1   0.00001217 0.00001583 0.00000238 
3
Lattice="10.0 0.0 0.0 0.0 10.0 0.0 0.0 0.0 10.0" Properties="species:S:1:pos:R:3:Z:I:1:forces:R:3" energy=0.0599778249
O   -0.0021882780  -0.1208872000  -0.0151852500 8   -0.00000089 -0.00000111 -0.00000019 
H   -0.7266360000   0.5014937000   0.1543185000 1   0.00000447 0.00000289 0.00000040 
H    0.7604209000   0.5335576000   0.0866811800 1   0.00000968 0.00001469 0.00000264 
3
Lattice="10.0 0.0 0.0 0.0 10.0 0.0 0.0 0.0 10.0" Properties="species:S:1:pos:R:3:Z:I:1:forces:R:3" energy=0.0520976062
O   -0.0015269680  -0.1208058000  -0.0172678400 8   -0.00000051 -0.00000115 -0.00000025 
H   -0.7272829000   0.5049454000   0.1765672000 1   0.00000210 0.00000574 0.00000129 
H    0.7505724000   0.5288132000   0.0974846200 1   0.00000600 0.00001246 0.00000267 
3
Lattice="10.0 0.0 0.0 0.0 10.0 0.0 0.0 0.0 10.0" Properties="species:S:1:pos:R:3:Z:I:1:forces:R:3" energy=0.0482255236
O   -0.0007576380  -0.1204817000  -0.0192976300 8   -0.00000007 -0.00000111 -0.00000030 
H   -0.7283739000   0.5071832000   0.1985424000 1   -0.00000016 0.00000838 0.00000232 
H    0.7394537000   0.5214312000   0.1077234000 1   0.00000124 0.00000919 0.00000241 
3
Lattice="10.0 0.0 0.0 0.0 10.0 0.0 0.0 0.0 10.0" Properties="species:S:1:pos:R:3:Z:I:1:forces:R:3" energy=0.0520268584
O    0.0000261286  -0.1199232000  -0.0212643600 8   0.00000040 -0.00000098 -0.00000033 
H   -0.7294310000   0.5076470000   0.2200275000 1   -0.00000205 0.00001057 0.00000336 
H    0.7280719000   0.5121046000   0.1174515000 1   -0.00000436 0.00000506 0.00000183 
3
Lattice="10.0 0.0 0.0 0.0 10.0 0.0 0.0 0.0 10.0" Properties="species:S:1:pos:R:3:Z:I:1:forces:R:3" energy=0.0640893617
O    0.0007244333  -0.1191563000  -0.0231618300 8   0.00000087 -0.00000079 -0.00000033 
H   -0.7300541000   0.5058732000   0.2408016000 1   -0.00000342 0.00001213 0.00000431 
H    0.7176124000   0.5017077000   0.1267915000 1   -0.00001033 0.00000046 0.00000096 
3
Lattice="10.0 0.0 0.0 0.0 10.0 0.0 0.0 0.0 10.0" Properties="species:S:1:pos:R:3:Z:I:1:forces:R:3" energy=0.0807586365
O    0.0012393440  -0.1182215000  -0.0249891200 8   0.00000127 -0.00000057 -0.00000031 
H   -0.7299532000   0.5015309000   0.2606641000 1   -0.00000419 0.00001297 0.00000506 
H    0.7093396000   0.4912135000   0.1359293000 1   -0.00001592 -0.00000396 -0.00000009 
3
Lattice="10.0 0.0 0.0 0.0 10.0 0.0 0.0 0.0 10.0" Properties="species:S:1:pos:R:3:Z:I:1:forces:R:3" energy=0.0946197671
O    0.0014859600  -0.1171664000  -0.0267502400 8   0.00000154 -0.00000036 -0.00000028 
H   -0.7289644000   0.4944424000   0.2794566000 1   -0.00000435 0.00001305 0.00000552 
H    0.7044368000   0.4815574000   0.1450869000 1   -0.00002016 -0.00000738 -0.00000108 
3
Lattice="10.0 0.0 0.0 0.0 10.0 0.0 0.0 0.0 10.0" Properties="species:S:1:pos:R:3:Z:I:1:forces:R:3" energy=0.0976619234
O    0.0014057150  -0.1160358000  -0.0284521800 8   0.00000164 -0.00000021 -0.00000025 
H   -0.7270557000   0.4845922000   0.2970811000 1   -0.00000387 0.00001235 0.00000561 
H    0.7038017000   0.4734638000   0.1544733000 1   -0.00002213 -0.00000906 -0.00000172 
3
Lattice="10.0 0.0 0.0 0.0 10.0 0.0 0.0 0.0 10.0" Properties="species:S:1:pos:R:3:Z:I:1:forces:R:3" energy=0.0860810494
O    0.0009787264  -0.1148612000  -0.0301021300 8   0.00000152 -0.00000015 -0.00000022 
H   -0.7243275000   0.4721269000   0.3135171000 1   -0.00000280 0.00001094 0.00000529 
H    0.7078500000   0.4672875000   0.1642230000 1   -0.00002129 -0.00000863 -0.00000176 
3
Lattice="10.0 0.0 0.0 0.0 10.0 0.0 0.0 0.0 10.0" Properties="species:S:1:pos:R:3:Z:I:1:forces:R:3" energy=0.0633247410
O    0.0002304915  -0.1136558000  -0.0317051000 8   0.00000119 -0.00000016 -0.00000021 
H   -0.7210072000   0.4573467000   0.3288343000 1   -0.00000118 0.00000889 0.00000449 
H    0.7164047000   0.4629376000   0.1743461000 1   -0.00001777 -0.00000629 -0.00000115 
3
Lattice="10.0 0.0 0.0 0.0 10.0 0.0 0.0 0.0 10.0" Properties="species:S:1:pos:R:3:Z:I:1:forces:R:3" energy=0.0385085826
O   -0.0007704176  -0.1124159000  -0.0332635000 8   0.00000072 -0.00000023 -0.00000020 
H   -0.7174371000   0.4406856000   0.3432001000 1   0.00000087 0.00000636 0.00000325 
H    0.7287197000   0.4599198000   0.1847131000 1   -0.00001226 -0.00000272 0.00000000 
3
Lattice="10.0 0.0 0.0 0.0 10.0 0.0 0.0 0.0 10.0" Properties="species:S:1:pos:R:3:Z:I:1:forces:R:3" energy=0.0212515567
O   -0.0019233290  -0.1111274000  -0.0347785200 8   0.00000017 -0.00000031 -0.00000019 
H   -0.7140506000   0.4226782000   0.3568780000 1   0.00000314 0.00000359 0.00000163 
H    0.7436307000   0.4574775000   0.1950795000 1   -0.00000579 0.00000126 0.00000145 
3
Lattice="10.0 0.0 0.0 0.0 10.0 0.0 0.0 0.0 10.0" Properties="species:S:1:pos:R:3:Z:I:1:forces:R:3" energy=0.0167073698
O   -0.0031115080  -0.1097742000  -0.0362524900 8   -0.00000038 -0.00000037 -0.00000017 
H   -0.7113296000   0.4039112000   0.3702110000 1   0.00000535 0.00000087 -0.00000020 
H    0.7597668000   0.4547687000   0.2051393000 1   0.00000070 0.00000493 0.00000291 
3
Lattice="10.0 0.0 0.0 0.0 10.0 0.0 0.0 0.0 10.0" Properties="species:S:1:pos:R:3:Z:I:1:forces:R:3" energy=0.0237794307
O   -0.0042188810  -0.1083437000  -0.0376902900 8   -0.00000086 -0.00000040 -0.00000014 
H   -0.7097419000   0.3849607000   0.3835859000 1   0.00000712 -0.00000147 -0.00000198 
H    0.7757538000   0.4510167000   0.2145833000 1   0.00000652 0.00000785 0.00000417 
3
Lattice="10.0 0.0 0.0 0.0 10.0 0.0 0.0 0.0 10.0" Properties="species:S:1:pos:R:3:Z:I:1:forces:R:3" energy=0.0366745815
O   -0.0051444070  -0.1068282000  -0.0390988700 8   -0.00000121 -0.00000042 -0.00000011 
H   -0.7096609000   0.3663213000   0.3973796000 1   0.00000805 -0.00000313 -0.00000340 
H    0.7903615000   0.4456039000   0.2231446000 1   0.00001123 0.00000982 0.00000510 
3
Lattice="10.0 0.0 0.0 0.0 10.0 0.0 0.0 0.0 10.0" Properties="species:S:1:pos:R:3:Z:I:1:forces:R:3" energy=0.0481874286
O   -0.0058128120  -0.1052234000  -0.0404848600 8   -0.00000142 -0.00000043 -0.00000009 
H   -0.7112835000   0.3483441000   0.4118939000 1   0.00000785 -0.00000393 -0.00000419 
H    0.8025921000   0.4381128000   0.2306269000 1   0.00001464 0.00001082 0.00000562 
3
Lattice="10.0 0.0 0.0 0.0 10.0 0.0 0.0 0.0 10.0" Properties="species:S:1:pos:R:3:Z:I:1:forces:R:3" energy=0.0529003219
O   -0.0061813790  -0.1035268000  -0.0418517900 8   -0.00000145 -0.00000044 -0.00000010 
H   -0.7145666000   0.3311987000   0.4272957000 1   0.00000641 -0.00000386 -0.00000417 
H    0.8117246000   0.4283321000   0.2369191000 1   0.00001663 0.00001089 0.00000571 
3
Lattice="10.0 0.0 0.0 0.0 10.0 0.0 0.0 0.0 10.0" Properties="species:S:1:pos:R:3:Z:I:1:forces:R:3" energy=0.0490200760
O   -0.0062426430  -0.1017365000  -0.0431981100 8   -0.00000133 -0.00000044 -0.00000013 
H   -0.7192069000   0.3148707000   0.4435798000 1   0.00000389 -0.00000308 -0.00000332 
H    0.8173372000   0.4162468000   0.2420020000 1   0.00001715 0.00001010 0.00000535 
3
Lattice="10.0 0.0 0.0 0.0 10.0 0.0 0.0 0.0 10.0" Properties="species:S:1:pos:R:3:Z:I:1:forces:R:3" energy=0.0385221880
O   -0.0060232440  -0.0998526800  -0.0445174100 8   -0.00000106 -0.00000042 -0.00000017 
H   -0.7246710000   0.2991954000   0.4605668000 1   0.00000063 -0.00000187 -0.00000180 
H    0.8193193000   0.4020241000   0.2459531000 1   0.00001615 0.00000852 0.00000450 
3
Lattice="10.0 0.0 0.0 0.0 10.0 0.0 0.0 0.0 10.0" Properties="species:S:1:pos:R:3:Z:I:1:forces:R:3" energy=0.0260025449
O   -0.0055799520  -0.0978801300  -0.0458006600 8   -0.00000067 -0.00000036 -0.00000021 
H   -0.7302694000   0.2839149000   0.4779342000 1   -0.00000291 -0.00000050 0.00000015 
H    0.8178824000   0.3859989000   0.2489516000 1   0.00001360 0.00000621 0.00000315 
3
Lattice="10.0 0.0 0.0 0.0 10.0 0.0 0.0 0.0 10.0" Properties="species:S:1:pos:R:3:Z:I:1:forces:R:3" energy=0.0169685925
O   -0.0049941890  -0.0958314600  -0.0470399000 8   -0.00000020 -0.00000025 -0.00000022 
H   -0.7352512000   0.2687400000   0.4952697000 1   -0.00000631 0.00000077 0.00000223 
H    0.8135678000   0.3686600000   0.2512838000 1   0.00000950 0.00000327 0.00000128 
3
Lattice="10.0 0.0 0.0 0.0 10.0 0.0 0.0 0.0 10.0" Properties="species:S:1:pos:R:3:Z:I:1:forces:R:3" energy=0.0159754020
O   -0.0043658930  -0.0937288600  -0.0482323300 8   0.00000033 -0.00000011 -0.00000020 
H   -0.7388971000   0.2534020000   0.5121329000 1   -0.00000920 0.00000178 0.00000418 
H    0.8072421000   0.3506284000   0.2533451000 1   0.00000403 -0.00000011 -0.00000107 
3
Lattice="10.0 0.0 0.0 0.0 10.0 0.0 0.0 0.0 10.0" Properties="species:S:1:pos:R:3:Z:I:1:forces:R:3" energy=0.0247562949
O   -0.0038065210  -0.0916040000  -0.0493832500 8   0.00000086 0.00000008 -0.00000013 
H   -0.7405951000   0.2376873000   0.5281118000 1   -0.00001133 0.00000245 0.00000577 
H    0.8000626000   0.3326202000   0.2556322000 1   -0.00000236 -0.00000364 -0.00000374 
3
Lattice="10.0 0.0 0.0 0.0 10.0 0.0 0.0 0.0 10.0" Properties="species:S:1:pos:R:3:Z:I:1:forces:R:3" energy=0.0406201330
O   -0.0034297920  -0.0894950500  -0.0505071500 8   0.00000135 0.00000026 -0.00000002 
H   -0.7398942000   0.2214550000   0.5428690000 1   -0.00001255 0.00000274 0.00000684 
H    0.7933828000   0.3153820000   0.2587120000 1   -0.00000885 -0.00000685 -0.00000646 
3
Lattice="10.0 0.0 0.0 0.0 10.0 0.0 0.0 0.0 10.0" Properties="species:S:1:pos:R:3:Z:I:1:forces:R:3" energy=0.0563751283
O   -0.0033385060  -0.0874408900  -0.0516258600 8   0.00000170 0.00000041 0.00000009 
H   -0.7365375000   0.2046423000   0.5561774000 1   -0.00001276 0.00000268 0.00000727 
H    0.7885773000   0.2995939000   0.2631582000 1   -0.00001427 -0.00000919 -0.00000874 
3
Lattice="10.0 0.0 0.0 0.0 10.0 0.0 0.0 0.0 10.0" Properties="species:S:1:pos:R:3:Z:I:1:forces:R:3" energy=0.0632376668
O   -0.0036077560  -0.0854734500  -0.0527642000 8   0.00000185 0.00000049 0.00000020 
H   -0.7304805000   0.1872613000   0.5679475000 1   -0.00001194 0.00000231 0.00000695 
H    0.7867935000   0.2857504000   0.2694543000 1   -0.00001741 -0.00001016 -0.00001008 
3
Lattice="10.0 0.0 0.0 0.0 10.0 0.0 0.0 0.0 10.0" Properties="species:S:1:pos:R:3:Z:I:1:forces:R:3" energy=0.0561139055
O   -0.0042684240  -0.0836107400  -0.0539442100 8   0.00000174 0.00000050 0.00000027 
H   -0.7218964000   0.1693910000   0.5782455000 1   -0.00001013 0.00000168 0.00000586 
H    0.7886945000   0.2740582000   0.2778838000 1   -0.00001748 -0.00000959 -0.00001009 
3
Lattice="10.0 0.0 0.0 0.0 10.0 0.0 0.0 0.0 10.0" Properties="species:S:1:pos:R:3:Z:I:1:forces:R:3" energy=0.0375670924
O   -0.0052972680  -0.0818534200  -0.0551805900 8   0.00000138 0.00000043 0.00000029 
H   -0.7111681000   0.1511645000   0.5873033000 1   -0.00000745 0.00000089 0.00000401 
H    0.7942947000   0.2643951000   0.2884481000 1   -0.00001449 -0.00000766 -0.00000867 
3
Lattice="10.0 0.0 0.0 0.0 10.0 0.0 0.0 0.0 10.0" Properties="species:S:1:pos:R:3:Z:I:1:forces:R:3" energy=0.0167563491
O   -0.0066186760  -0.0801864000  -0.0564792100 8   0.00000084 0.00000031 0.00000029 
H   -0.6988633000   0.1327506000   0.5955130000 1   -0.00000412 0.00000003 0.00000152 
H    0.8029615000   0.2563523000   0.3008484000 1   -0.00000924 -0.00000489 -0.00000610 
3
Lattice="10.0 0.0 0.0 0.0 10.0 0.0 0.0 0.0 10.0" Properties="species:S:1:pos:R:3:Z:I:1:forces:R:3" energy=0.0037904505
O   -0.0081182610  -0.0785841300  -0.0578389500 8   0.00000022 0.00000017 0.00000026 
H   -0.6856867000   0.1143302000   0.6034011000 1   -0.00000049 -0.00000074 -0.00000135 
H    0.8135842000   0.2493436000   0.3145402000 1   -0.00000294 -0.00000188 -0.00000285 
3
Lattice="10.0 0.0 0.0 0.0 10.0 0.0 0.0 0.0 10.0" Properties="species:S:1:pos:R:3:Z:I:1:forces:R:3" energy=0.0039401094
O   -0.0096635730  -0.0770168500  -0.0592546200 8   -0.00000039 0.00000003 0.00000023 
H   -0.6724058000   0.0960664800   0.6115743000 1   0.00000298 -0.00000129 -0.00000418 
H    0.8248285000   0.2427335000   0.3288347000 1   0.00000328 0.00000086 0.00000058 
3
Lattice="10.0 0.0 0.0 0.0 10.0 0.0 0.0 0.0 10.0" Properties="species:S:1:pos:R:3:Z:I:1:forces:R:3" energy=0.0155808468
O   -0.0111255100  -0.0754553400  -0.0607183000 8   -0.00000091 -0.00000010 0.00000017 
H   -0.6597550000   0.0780765800   0.6206326000 1   0.00000580 -0.00000153 -0.00000648 
H    0.8353795000   0.2359413000   0.3430059000 1   0.00000859 0.00000305 0.00000379 
3
Lattice="10.0 0.0 0.0 0.0 10.0 0.0 0.0 0.0 10.0" Properties="species:S:1:pos:R:3:Z:I:1:forces:R:3" energy=0.0322664481
O   -0.0123956100  -0.0738734500  -0.0622178600 8   -0.00000127 -0.00000020 0.00000008 
H   -0.6483312000   0.0604095500   0.6310620000 1   0.00000756 -0.00000140 -0.00000772 
H    0.8441130000   0.2285028000   0.3563755000 1   0.00001257 0.00000459 0.00000652 
3
Lattice="10.0 0.0 0.0 0.0 10.0 0.0 0.0 0.0 10.0" Properties="species:S:1:pos:R:3:Z:I:1:forces:R:3" energy=0.0467262140
O   -0.0133972700  -0.0722490800  -0.0637333400 8   -0.00000146 -0.00000028 -0.00000007 
H   -0.6385066000   0.0430392200   0.6431248000 1   0.00000804 -0.00000097 -0.00000754 
H    0.8501854000   0.2200932000   0.3683642000 1   0.00001508 0.00000547 0.00000866 
3
Lattice="10.0 0.0 0.0 0.0 10.0 0.0 0.0 0.0 10.0" Properties="species:S:1:pos:R:3:Z:I:1:forces:R:3" energy=0.0542907886
O   -0.0140905700  -0.0705647200  -0.0652339100 8   -0.00000147 -0.00000034 -0.00000027 
H   -0.6303840000   0.0258746500   0.6567847000 1   0.00000731 -0.00000036 -0.00000588 
H    0.8530660000   0.2105259000   0.3785193000 1   0.00001609 0.00000576 0.00001014 
3
Lattice="10.0 0.0 0.0 0.0 10.0 0.0 0.0 0.0 10.0" Properties="species:S:1:pos:R:3:Z:I:1:forces:R:3" energy=0.0542445304
O   -0.0144717800  -0.0688083600  -0.0666776000 8   -0.00000134 -0.00000037 -0.00000050 
H   -0.6238079000   0.0087863000   0.6716892000 1   0.00000565 0.00000028 -0.00000295 
H    0.8525399000   0.1997397000   0.3865272000 1   0.00001565 0.00000553 0.00001093 
3
Lattice="10.0 0.0 0.0 0.0 10.0 0.0 0.0 0.0 10.0" Properties="species:S:1:pos:R:3:Z:I:1:forces:R:3" energy=0.0491615717
O   -0.0145688100  -0.0669745200  -0.0680149500 8   -0.00000109 -0.00000036 -0.00000074 
H   -0.6184285000  -0.0083611210   0.6872188000 1   0.00000352 0.00000081 0.00000077 
H    0.8487005000   0.1877830000   0.3922222000 1   0.00001380 0.00000485 0.00001098 
3
Lattice="10.0 0.0 0.0 0.0 10.0 0.0 0.0 0.0 10.0" Properties="species:S:1:pos:R:3:Z:I:1:forces:R:3" energy=0.0432405234
O   -0.0144348700  -0.0650651500  -0.0691954900 8   -0.00000075 -0.00000031 -0.00000095 
H   -0.6137931000  -0.0256799300   0.7025845000 1   0.00000132 0.00000115 0.00000477 
H    0.8419393000   0.1747987000   0.3955924000 1   0.00001059 0.00000381 0.00001028 
3
Lattice="10.0 0.0 0.0 0.0 10.0 0.0 0.0 0.0 10.0" Properties="species:S:1:pos:R:3:Z:I:1:forces:R:3" energy=0.0407344179
O   -0.0141421100  -0.0630897100  -0.0701752900 8   -0.00000035 -0.00000023 -0.00000109 
H   -0.6094377000  -0.0432414700   0.7169407000 1   -0.00000059 0.00000126 0.00000855 
H    0.8329376000   0.1610089000   0.3967864000 1   0.00000608 0.00000246 0.00000881 
3
Lattice="10.0 0.0 0.0 0.0 10.0 0.0 0.0 0.0 10.0" Properties="species:S:1:pos:R:3:Z:I:1:forces:R:3" energy=0.0447860911
O   -0.0137761700  -0.0610645800  -0.0709234800 8   0.00000010 -0.00000013 -0.00000116 
H   -0.6049575000  -0.0610702200   0.7294866000 1   -0.00000201 0.00000117 0.00001176 
H    0.8226496000   0.1466975000   0.3961146000 1   0.00000045 0.00000094 0.00000664 
3
Lattice="10.0 0.0 0.0 0.0 10.0 0.0 0.0 0.0 10.0" Properties="species:S:1:pos:R:3:Z:I:1:forces:R:3" energy=0.0563370333
O   -0.0134310300  -0.0590113100  -0.0714262100 8   0.00000055 -0.00000002 -0.00000114 
H   -0.6000507000  -0.0791474300   0.7395423000 1   -0.00000286 0.00000093 0.00001417 
H    0.8122655000   0.1321879000   0.3940376000 1   -0.00000590 -0.00000063 0.00000393 
3
Lattice="10.0 0.0 0.0 0.0 10.0 0.0 0.0 0.0 10.0" Properties="species:S:1:pos:R:3:Z:I:1:forces:R:3" energy=0.0731505248
O   -0.0132026500  -0.0569540300  -0.0716874800 8   0.00000097 0.00000009 -0.00000105 
H   -0.5945396000  -0.0974213100   0.7465979000 1   -0.00000309 0.00000059 0.00001564 
H    0.8031296000   0.1178115000   0.3911286000 1   -0.00001231 -0.00000204 0.00000105 
3
Lattice="10.0 0.0 0.0 0.0 10.0 0.0 0.0 0.0 10.0" Properties="species:S:1:pos:R:3:Z:I:1:forces:R:3" energy=0.0895857876
O   -0.0131795800  -0.0549160600  -0.0717262700 8   0.00000129 0.00000018 -0.00000092 
H   -0.5883748000  -0.1158207000   0.7503437000 1   -0.00000273 0.00000024 0.00001607 
H    0.7965987000   0.1038671000   0.3879983000 1   -0.00001781 -0.00000310 -0.00000149 
3
Lattice="10.0 0.0 0.0 0.0 10.0 0.0 0.0 0.0 10.0" Properties="species:S:1:pos:R:3:Z:I:1:forces:R:3" energy=0.0983612384
O   -0.0134305000  -0.0529162300  -0.0715705200 8   0.00000146 0.00000023 -0.00000078 
H   -0.5816317000  -0.1342704000   0.7506873000 1   -0.00000183 -0.00000006 0.00001545 
H    0.7938380000   0.0905781300   0.3851829000 1   -0.00002136 -0.00000364 -0.00000309 
3
Lattice="10.0 0.0 0.0 0.0 10.0 0.0 0.0 0.0 10.0" Properties="species:S:1:pos:R:3:Z:I:1:forces:R:3" energy=0.0943313337
O   -0.0139907000  -0.0509657900  -0.0712500000 8   0.00000142 0.00000024 -0.00000066 
H   -0.5745018000  -0.1527064000   0.7477612000 1   -0.00000043 -0.00000024 0.00001376 
H    0.7955988000   0.0780593500   0.3830221000 1   -0.00002215 -0.00000363 -0.00000335 
3
Lattice="10.0 0.0 0.0 0.0 10.0 0.0 0.0 0.0 10.0" Properties="species:S:1:pos:R:3:Z:I:1:forces:R:3" energy=0.0780947090
O   -0.0148521200  -0.0490669700  -0.0707906700 8   0.00000117 0.00000021 -0.00000056 
H   -0.5672808000  -0.1710913000   0.7419225000 1   0.00000138 -0.00000022 0.00001108 
H    0.8020491000   0.0663086800   0.3815709000 1   -0.00001998 -0.00000317 -0.00000220 
3
Lattice="10.0 0.0 0.0 0.0 10.0 0.0 0.0 0.0 10.0" Properties="species:S:1:pos:R:3:Z:I:1:forces:R:3" energy=0.0563887336
O   -0.0159615500  -0.0472133700  -0.0702129900 8   0.00000074 0.00000015 -0.00000048 
H   -0.5603520000  -0.1894292000   0.7337395000 1   0.00000349 0.00000004 0.00000755 
H    0.8127276000   0.0552288000   0.3805859000 1   -0.00001529 -0.00000245 0.00000003 
3
Lattice="10.0 0.0 0.0 0.0 10.0 0.0 0.0 0.0 10.0" Properties="species:S:1:pos:R:3:Z:I:1:forces:R:3" energy=0.0384242295
O   -0.0172282900  -0.0453919200  -0.0695342400 8   0.00000021 0.00000007 -0.00000039 
H   -0.5541621000  -0.2077766000   0.7239593000 1   0.00000572 0.00000057 0.00000346 
H    0.8266417000   0.0446685400   0.3795938000 1   -0.00000902 -0.00000169 0.00000279 
3
Lattice="10.0 0.0 0.0 0.0 10.0 0.0 0.0 0.0 10.0" Properties="species:S:1:pos:R:3:Z:I:1:forces:R:3" energy=0.0307671385
O   -0.0185390400  -0.0435854100  -0.0687721700 8   -0.00000035 -0.00000002 -0.00000030 
H   -0.5491831000  -0.2262451000   0.7134479000 1   0.00000781 0.00000132 -0.00000074 
H    0.8424652000   0.0344667800   0.3780107000 1   -0.00000224 -0.00000104 0.00000549 
3
Lattice="10.0 0.0 0.0 0.0 10.0 0.0 0.0 0.0 10.0" Properties="species:S:1:pos:R:3:Z:I:1:forces:R:3" energy=0.0341820813
O   -0.0197755400  -0.0417751500  -0.0679467700 8   -0.00000086 -0.00000010 -0.00000020 
H   -0.5458567000  -0.2449928000   0.7030936000 1   0.00000940 0.00000216 -0.00000446 
H    0.8587628000   0.0244843800   0.3752653000 1   0.00000418 -0.00000055 0.00000771 
3
Lattice="10.0 0.0 0.0 0.0 10.0 0.0 0.0 0.0 10.0" Properties="species:S:1:pos:R:3:Z:I:1:forces:R:3" energy=0.0440241915
O   -0.0208309300  -0.0399434300  -0.0670780800 8   -0.00000125 -0.00000017 -0.00000013 
H   -0.5445209000  -0.2641978000   0.6936837000 1   0.00001016 0.00000290 -0.00000710 
H    0.8741766000   0.0146188100   0.3708887000 1   0.00000964 -0.00000025 0.00000921 
3
Lattice="10.0 0.0 0.0 0.0 10.0 0.0 0.0 0.0 10.0" Properties="species:S:1:pos:R:3:Z:I:1:forces:R:3" energy=0.0533792302
O   -0.0216222800  -0.0380763200  -0.0661811800 8   -0.00000149 -0.00000020 -0.00000011 
H   -0.5453354000  -0.2840164000   0.6857758000 1   0.00000980 0.00000330 -0.00000820 
H    0.8875504000   0.0048051360   0.3645621000 1   0.00001382 -0.00000008 0.00000994 
3
Lattice="10.0 0.0 0.0 0.0 10.0 0.0 0.0 0.0 10.0" Properties="species:S:1:pos:R:3:Z:I:1:forces:R:3" energy=0.0567179831
O   -0.0220985300  -0.0361663100  -0.0652610300 8   -0.00000156 -0.00000020 -0.00000014 
H   -0.5482252000  -0.3045337000   0.6796031000 1   0.00000827 0.00000318 -0.00000762 
H    0.8979986000  -0.0049905970   0.3561315000 1   0.00001657 -0.00000002 0.00000992 
3
Lattice="10.0 0.0 0.0 0.0 10.0 0.0 0.0 0.0 10.0" Properties="species:S:1:pos:R:3:Z:I:1:forces:R:3" energy=0.0521656330
O   -0.0222436100  -0.0342142300  -0.0643103300 8   -0.00000148 -0.00000015 -0.00000023 
H   -0.5528645000  -0.3257236000   0.6750444000 1   0.00000570 0.00000245 -0.00000559 
H    0.9049404000  -0.0147814700   0.3456019000 1   0.00001779 -0.00000001 0.00000920 
3
Lattice="10.0 0.0 0.0 0.0 10.0 0.0 0.0 0.0 10.0" Properties="species:S:1:pos:R:3:Z:I:1:forces:R:3" energy=0.0415833917
O   -0.0220754000  -0.0322295900  -0.0633114500 8   -0.00000125 -0.00000007 -0.00000033 
H   -0.5587106000  -0.3474324000   0.6716692000 1   0.00000246 0.00000119 -0.00000258 
H    0.9081169000  -0.0245702300   0.3331243000 1   0.00001744 0.00000000 0.00000787 
3
Lattice="10.0 0.0 0.0 0.0 10.0 0.0 0.0 0.0 10.0" Properties="species:S:1:pos:R:3:Z:I:1:forces:R:3" energy=0.0291236122
O   -0.0216417900  -0.0302291100  -0.0622420200 8   -0.00000091 0.00000002 -0.00000043 
H   -0.5650768000  -0.3693922000   0.6688412000 1   -0.00000104 -0.00000045 0.00000081 
H    0.9076015000  -0.0343593200   0.3189798000 1   0.00001549 0.00000006 0.00000600 
3
Lattice="10.0 0.0 0.0 0.0 10.0 0.0 0.0 0.0 10.0" Properties="species:S:1:pos:R:3:Z:I:1:forces:R:3" energy=0.0194610926
O   -0.0210155200  -0.0282338700  -0.0610817000 8   -0.00000047 0.00000013 -0.00000049 
H   -0.5712224000  -0.3912568000   0.6658411000 1   -0.00000439 -0.00000223 0.00000408 
H    0.9038077000  -0.0441604900   0.3035648000 1   0.00001193 0.00000020 0.00000367 
3
Lattice="10.0 0.0 0.0 0.0 10.0 0.0 0.0 0.0 10.0" Properties="species:S:1:pos:R:3:Z:I:1:forces:R:3" energy=0.0163971678
O   -0.0202887700  -0.0262657000  -0.0598180700 8   0.00000003 0.00000022 -0.00000049 
H   -0.5764379000  -0.4126488000   0.6619784000 1   -0.00000728 -0.00000394 0.00000682 
H    0.8974894000  -0.0540044700   0.2873728000 1   0.00000685 0.00000048 0.00000100 
3
Lattice="10.0 0.0 0.0 0.0 10.0 0.0 0.0 0.0 10.0" Properties="species:S:1:pos:R:3:Z:I:1:forces:R:3" energy=0.0217413493
O   -0.0195677600  -0.0243436600  -0.0584502200 8   0.00000056 0.00000028 -0.00000044 
H   -0.5801125000  -0.4332072000   0.6566725000 1   -0.00000949 -0.00000538 0.00000881 
H    0.8897210000  -0.0639502400   0.2709701000 1   0.00000058 0.00000093 -0.00000183 
3
Lattice="10.0 0.0 0.0 0.0 10.0 0.0 0.0 0.0 10.0" Properties="species:S:1:pos:R:3:Z:I:1:forces:R:3" energy=0.0342310606
O   -0.0189656600  -0.0224809800  -0.0569893700 8   0.00000108 0.00000031 -0.00000034 
H   -0.5817778000  -0.4526265000   0.6495027000 1   -0.00001090 -0.00000641 0.00000992 
H    0.8818306000  -0.0740927200   0.2549553000 1   -0.00000623 0.00000156 -0.00000452 
3
Lattice="10.0 0.0 0.0 0.0 10.0 0.0 0.0 0.0 10.0" Properties="species:S:1:pos:R:3:Z:I:1:forces:R:3" energy=0.0489547704
O   -0.0185921400  -0.0206830800  -0.0554565500 8   0.00000151 0.00000029 -0.00000021 
H   -0.5811348000  -0.4706887000   0.6402332000 1   -0.00001145 -0.00000691 0.00001011 
H    0.8752595000  -0.0845644100   0.2398979000 1   -0.00001254 0.00000230 -0.00000670 
3
Lattice="10.0 0.0 0.0 0.0 10.0 0.0 0.0 0.0 10.0" Properties="species:S:1:pos:R:3:Z:I:1:forces:R:3" energy=0.0586254532
O   -0.0185385400  -0.0189466400  -0.0538783100 8   0.00000178 0.00000024 -0.00000009 
H   -0.5780681000  -0.4872878000   0.6288239000 1   -0.00001110 -0.00000678 0.00000937 
H    0.8713422000  -0.0955238800   0.2262595000 1   -0.00001709 0.00000304 -0.00000801 
3
Lattice="10.0 0.0 0.0 0.0 10.0 0.0 0.0 0.0 10.0" Properties="species:S:1:pos:R:3:Z:I:1:forces:R:3" energy=0.0571832860
O   -0.0188609300  -0.0172600300  -0.0522819700 8   0.00000181 0.00000015 0.00000003 
H   -0.5726518000  -0.5024519000   0.6154311000 1   -0.00000986 -0.00000593 0.00000774 
H    0.8710425000  -0.1071272000   0.2143174000 1   -0.00001883 0.00000357 -0.00000823 
3
Lattice="10.0 0.0 0.0 0.0 10.0 0.0 0.0 0.0 10.0" Properties="species:S:1:pos:R:3:Z:I:1:forces:R:3" energy=0.0440432390
O   -0.0195659700  -0.0156048400  -0.0506922400 8   0.00000158 0.00000004 0.00000013 
H   -0.5651492000  -0.5163608000   0.6004009000 1   -0.00000778 -0.00000432 0.00000529 
H    0.8747292000  -0.1194872000   0.2041177000 1   -0.00001732 0.00000372 -0.00000738 
3
Lattice="10.0 0.0 0.0 0.0 10.0 0.0 0.0 0.0 10.0" Properties="species:S:1:pos:R:3:Z:I:1:forces:R:3" energy=0.0253712567
O   -0.0206056600  -0.0139577400  -0.0491303800 8   0.00000113 -0.00000009 0.00000022 
H   -0.5560006000  -0.5293547000   0.5842517000 1   -0.00000500 -0.00000199 0.00000219 
H    0.8820812000  -0.1326339000   0.1954790000 1   -0.00001293 0.00000336 -0.00000571 
3
Lattice="10.0 0.0 0.0 0.0 10.0 0.0 0.0 0.0 10.0" Properties="species:S:1:pos:R:3:Z:I:1:forces:R:3" energy=0.0107074105
O   -0.0218843900  -0.0122922800  -0.0476154100 8   0.00000053 -0.00000022 0.00000031 
H   -0.5457945000  -0.5419283000   0.5676382000 1   -0.00000177 0.00000092 -0.00000124 
H    0.8921695000  -0.1464922000   0.1880492000 1   -0.00000670 0.00000253 -0.00000364 
3
Lattice="10.0 0.0 0.0 0.0 10.0 0.0 0.0 0.0 10.0" Properties="species:S:1:pos:R:3:Z:I:1:forces:R:3" energy=0.0070911084
O   -0.0232762000  -0.0105808100  -0.0461654700 8   -0.00000010 -0.00000034 0.00000038 
H   -0.5352129000  -0.5546966000   0.5512866000 1   0.00000150 0.00000406 -0.00000456 
H    0.9036767000  -0.1608861000   0.1813891000 1   0.00000011 0.00000134 -0.00000154 
3
Lattice="10.0 0.0 0.0 0.0 10.0 0.0 0.0 0.0 10.0" Properties="species:S:1:pos:R:3:Z:I:1:forces:R:3" energy=0.0151318703
O   -0.0246465900  -0.0087973750  -0.0447968600 8   -0.00000068 -0.00000043 0.00000044 
H   -0.5249486000  -0.5683234000   0.5359010000 1   0.00000434 0.00000691 -0.00000724 
H    0.9151615000  -0.1755635000   0.1750540000 1   0.00000645 -0.00000005 0.00000033 
3
Lattice="10.0 0.0 0.0 0.0 10.0 0.0 0.0 0.0 10.0" Properties="species:S:1:pos:R:3:Z:I:1:forces:R:3" energy=0.0293385767
O   -0.0258731800  -0.0069224180  -0.0435204300 8   -0.00000113 -0.00000047 0.00000044 
H   -0.5156023000  -0.5834124000   0.5220475000 1   0.00000627 0.00000887 -0.00000874 
H    0.9252818000  -0.1902313000   0.1686498000 1   0.00001163 -0.00000147 0.00000181 
3
Lattice="10.0 0.0 0.0 0.0 10.0 0.0 0.0 0.0 10.0" Properties="species:S:1:pos:R:3:Z:I:1:forces:R:3" energy=0.0420350894
O   -0.0268611000  -0.0049487430  -0.0423364200 8   -0.00000141 -0.00000042 0.00000037 
H   -0.5075826000  -0.6003788000   0.5100446000 1   0.00000700 0.00000942 -0.00000876 
H    0.9329411000  -0.2045884000   0.1618617000 1   0.00001531 -0.00000280 0.00000289 
3
Lattice="10.0 0.0 0.0 0.0 10.0 0.0 0.0 0.0 10.0" Properties="species:S:1:pos:R:3:Z:I:1:forces:R:3" energy=0.0478554581
O   -0.0275515700  -0.0028867420  -0.0412306800 8   -0.00000150 -0.00000028 0.00000023 
H   -0.5010439000  -0.6193394000   0.4998966000 1   0.00000651 0.00000832 -0.00000732 
H    0.9373605000  -0.2183530000   0.1544609000 1   0.00001738 -0.00000395 0.00000359 
3